17
Properties=species:S:1:pos:R:3:forces:R:3 pbc="F F F"
V        0.79069799      -0.18973166       0.96396530   33293.84375000   38836.24609375 -172796.45312500
Si       0.03482338      -1.05402315       1.79786360 -311706.53125000 -474865.40625000  533351.50000000
Si       2.01916838       0.06350421       1.62703013  482194.68750000   31118.62109375  392955.90625000
Si       2.00659299      -0.83218533       0.66511828  507914.50000000 -349452.90625000  290311.34375000
Si       0.07799937      -0.41831410      -0.28585330 -347228.34375000 -168120.84375000 -723182.37500000
Si       1.25124276      -1.44100308       1.52035105  267154.75000000 -521212.09375000  357314.31250000
Si       1.50523758       1.12122953       0.89604992  456860.15625000  501561.78125000  234100.45312500
Si       0.22369103       1.25810003       1.11586761 -240695.87500000  646329.00000000  298047.28125000
Si       0.62180036       0.72174668      -0.03680849  -17857.52734375  516786.56250000 -579121.12500000
Si      -0.26180962       0.17004634       1.76523435 -394430.31250000   65488.18359375  631151.87500000
Si       1.00002778      -0.51590568       2.42025661 -125180.83593750  255083.56250000 -1105792.87500000
Si      -0.56780958       0.34858617       0.52896035 -749056.43750000  308679.12500000  -62891.85937500
Si       0.89728850       0.69414532       2.05380678  136922.93750000  377479.50000000  650261.68750000
Si       1.31138361      -0.80270988      -0.40109065  257928.45312500 -391376.71875000 -638219.18750000
Si      -0.61733526      -0.95487148       0.73776513 -613927.87500000 -424789.81250000  139707.26562500
Si       0.55434400      -1.48887026       0.48620066   27533.02148438 -676964.12500000   49035.69140625
Si       1.88566923       0.23861989       0.03369636  630281.37500000  265419.28125000 -294233.28125000
